/*--------------------------------*- C++ -*----------------------------------*\
| =========                 |                                                 |
| \\      /  F ield         | OpenFOAM: The Open Source CFD Toolbox           |
|  \\    /   O peration     | Version:  v1806                                 |
|   \\  /    A nd           | Web:      www.OpenFOAM.com                      |
|    \\/     M anipulation  |                                                 |
\*---------------------------------------------------------------------------*/
FoamFile
{
    version     2.0;
    format      ascii;
    class       volScalarField;
    location    "0.005";
    object      gradTx;
}
// * * * * * * * * * * * * * * * * * * * * * * * * * * * * * * * * * * * * * //

dimensions      [0 -1 0 1 0 0 0];


internalField   nonuniform List<scalar> 
841
(
-0.000136838
-0.0004089
-0.00067613
-0.000935426
-0.00118373
-0.0014181
-0.00163584
-0.00183436
-0.00201132
-0.00216471
-0.00229272
-0.00239385
-0.00246693
-0.00251112
-0.00252591
-0.00251112
-0.00246695
-0.00239387
-0.00229274
-0.00216473
-0.00201136
-0.00183437
-0.00163585
-0.00141813
-0.00118376
-0.000935469
-0.000676161
-0.000408897
-0.000136831
-0.000139348
-0.000416427
-0.000688575
-0.000952615
-0.00120547
-0.00144416
-0.00166586
-0.00186799
-0.00204819
-0.00220437
-0.00233472
-0.00243769
-0.00251208
-0.00255707
-0.00257213
-0.00255708
-0.00251209
-0.00243768
-0.00233472
-0.00220439
-0.0020482
-0.001868
-0.00166587
-0.00144417
-0.0012055
-0.000952644
-0.000688582
-0.000416422
-0.000139356
-0.000144427
-0.000431567
-0.00071367
-0.000987365
-0.00124938
-0.00149673
-0.00172646
-0.00193591
-0.00212263
-0.00228443
-0.00241944
-0.00252612
-0.00260321
-0.00264982
-0.00266542
-0.00264982
-0.00260322
-0.00252613
-0.00241945
-0.00228442
-0.00212261
-0.00193591
-0.00172646
-0.00149672
-0.00124938
-0.00098735
-0.000713688
-0.000431611
-0.00014444
-0.000152174
-0.00045471
-0.000751893
-0.00104022
-0.00131626
-0.0015768
-0.00181877
-0.00203936
-0.00223599
-0.00240636
-0.0025485
-0.00266079
-0.00274194
-0.00279102
-0.00280745
-0.00279103
-0.00274196
-0.0026608
-0.00254848
-0.00240632
-0.00223594
-0.00203932
-0.00181874
-0.00157678
-0.00131625
-0.00104022
-0.00075192
-0.000454734
-0.000152177
-0.000162724
-0.000486256
-0.000804008
-0.00111225
-0.00140737
-0.00168585
-0.00194448
-0.00218022
-0.00239032
-0.00257235
-0.00272421
-0.00284417
-0.00293084
-0.00298325
-0.00300079
-0.00298325
-0.00293084
-0.00284416
-0.0027242
-0.00257233
-0.00239029
-0.00218019
-0.00194445
-0.00168584
-0.00140736
-0.00111225
-0.000803996
-0.000486233
-0.000162718
-0.000176275
-0.000526739
-0.000870956
-0.00120483
-0.00152443
-0.00182599
-0.00210597
-0.00236112
-0.00258849
-0.00278545
-0.00294975
-0.00307953
-0.00317329
-0.00322997
-0.00324893
-0.00322996
-0.00317328
-0.00307953
-0.00294976
-0.00278544
-0.00258848
-0.00236111
-0.00210595
-0.00182596
-0.0015244
-0.0012048
-0.00087092
-0.000526719
-0.00017627
-0.000193108
-0.000576994
-0.000953993
-0.00131965
-0.00166962
-0.00199978
-0.00230622
-0.0025854
-0.00283415
-0.00304959
-0.00322927
-0.00337114
-0.00347363
-0.00353558
-0.00355631
-0.00353559
-0.00347364
-0.00337115
-0.00322927
-0.0030496
-0.00283417
-0.00258543
-0.00230622
-0.00199975
-0.0016696
-0.00131963
-0.000953983
-0.000576977
-0.000193093
-0.000213528
-0.000638015
-0.00105484
-0.00145903
-0.00184578
-0.00221055
-0.00254904
-0.00285732
-0.00313189
-0.00336962
-0.00356783
-0.00372431
-0.00383731
-0.00390562
-0.00392847
-0.00390562
-0.00383731
-0.00372429
-0.00356783
-0.00336963
-0.00313192
-0.00285735
-0.00254904
-0.00221054
-0.00184577
-0.001459
-0.0010548
-0.000637985
-0.000213516
-0.000237935
-0.000710956
-0.00117541
-0.00162564
-0.00205632
-0.00246235
-0.00283901
-0.00318194
-0.00348722
-0.0037514
-0.00397158
-0.00414536
-0.00427084
-0.00434667
-0.00437203
-0.00434666
-0.00427083
-0.00414535
-0.00397159
-0.00375141
-0.00348722
-0.00318195
-0.00283903
-0.00246236
-0.00205631
-0.00162561
-0.00117536
-0.000710943
-0.00023794
-0.000266865
-0.000797334
-0.00131808
-0.00182278
-0.00230535
-0.0027601
-0.00318172
-0.00356536
-0.00390669
-0.00420193
-0.00444787
-0.00464189
-0.00478193
-0.00486653
-0.00489482
-0.00486652
-0.00478192
-0.00464189
-0.00444788
-0.00420195
-0.00390671
-0.00356538
-0.00318174
-0.00276012
-0.00230535
-0.00182276
-0.00131806
-0.000797321
-0.000266859
-0.000300896
-0.000898936
-0.00148585
-0.00205447
-0.0025979
-0.00310968
-0.00358383
-0.00401494
-0.00439821
-0.00472952
-0.00500533
-0.00522278
-0.00537966
-0.00547441
-0.00550609
-0.0054744
-0.00537964
-0.00522276
-0.00500531
-0.00472951
-0.00439821
-0.00401492
-0.00358381
-0.00310966
-0.00259788
-0.00205445
-0.00148583
-0.000898913
-0.00030088
-0.000340723
-0.00101787
-0.00168222
-0.00232552
-0.00293991
-0.00351802
-0.00405314
-0.00453923
-0.00497097
-0.00534382
-0.00565394
-0.00589828
-0.00607446
-0.00618083
-0.0062164
-0.00618084
-0.00607447
-0.00589827
-0.00565394
-0.0053438
-0.00497096
-0.00453921
-0.00405313
-0.00351801
-0.00293989
-0.00232551
-0.00168221
-0.00101787
-0.000340721
-0.000387266
-0.00115681
-0.00191151
-0.00264177
-0.0033386
-0.00399357
-0.00459908
-0.00514843
-0.00563577
-0.00605611
-0.00640536
-0.00668026
-0.00687835
-0.00699789
-0.00703786
-0.00699791
-0.00687837
-0.00668028
-0.00640536
-0.0060561
-0.00563577
-0.00514844
-0.00459909
-0.00399356
-0.00333859
-0.00264179
-0.00191152
-0.00115683
-0.000387275
-0.000441626
-0.00131902
-0.00217898
-0.00301035
-0.00380267
-0.00454636
-0.00523283
-0.00585459
-0.00640525
-0.00687947
-0.00727295
-0.0075823
-0.007805
-0.0079393
-0.00798418
-0.00793931
-0.00780501
-0.00758231
-0.00727296
-0.00687947
-0.00640525
-0.00585459
-0.00523283
-0.00454636
-0.00380267
-0.00301035
-0.00217898
-0.00131903
-0.000441633
-0.000505143
-0.00150847
-0.0024911
-0.00343993
-0.00434274
-0.00518853
-0.00596767
-0.00667184
-0.00729414
-0.00782899
-0.00827197
-0.00861972
-0.00886975
-0.00902041
-0.00907073
-0.0090204
-0.00886974
-0.00861972
-0.00827199
-0.00782901
-0.00729416
-0.00667185
-0.00596769
-0.00518856
-0.00434275
-0.00343993
-0.00249111
-0.00150847
-0.000505147
-0.000579539
-0.00173022
-0.00285604
-0.00394136
-0.00497188
-0.00593492
-0.00681962
-0.00761696
-0.00831967
-0.00892206
-0.00941981
-0.00980978
-0.0100897
-0.0102583
-0.0103145
-0.0102582
-0.0100897
-0.00980978
-0.00941982
-0.00892208
-0.0083197
-0.007617
-0.00681966
-0.00593495
-0.00497192
-0.0039414
-0.00285607
-0.00173025
-0.000579546
-0.000667041
-0.00199084
-0.00328426
-0.00452844
-0.00570645
-0.00680372
-0.0078081
-0.00870998
-0.00950197
-0.0101786
-0.0107361
-0.0111717
-0.0114839
-0.0116715
-0.0117341
-0.0116715
-0.0114839
-0.0111717
-0.0107361
-0.0101786
-0.009502
-0.00871002
-0.00780814
-0.00680375
-0.00570651
-0.00452849
-0.0032843
-0.00199087
-0.00066705
-0.000770602
-0.00229895
-0.00378942
-0.00521893
-0.00656726
-0.00781762
-0.00895676
-0.00997473
-0.0108645
-0.0116215
-0.0122427
-0.0127266
-0.0130725
-0.0132801
-0.0133493
-0.0132801
-0.0130725
-0.0127266
-0.0122427
-0.0116215
-0.0108645
-0.00997475
-0.00895679
-0.00781766
-0.00656731
-0.00521897
-0.00378946
-0.00229898
-0.000770613
-0.000894256
-0.00266628
-0.00438987
-0.00603628
-0.00758117
-0.00900534
-0.0102947
-0.0114398
-0.0124346
-0.0132763
-0.0139638
-0.0144972
-0.0148773
-0.015105
-0.0151808
-0.015105
-0.0148773
-0.0144972
-0.0139638
-0.0132763
-0.0124346
-0.0114398
-0.0102947
-0.00900536
-0.00758117
-0.00603629
-0.00438989
-0.00266628
-0.000894265
-0.00104371
-0.00310923
-0.00511096
-0.00701223
-0.00878363
-0.0104037
-0.0118582
-0.0131394
-0.0142441
-0.0151721
-0.0159256
-0.0165073
-0.0169203
-0.017167
-0.0172491
-0.017167
-0.0169203
-0.0165073
-0.0159256
-0.0151721
-0.0142441
-0.0131394
-0.0118582
-0.0104037
-0.00878362
-0.00701222
-0.00511096
-0.00310923
-0.00104371
-0.00122738
-0.00365185
-0.005989
-0.00819107
-0.0102226
-0.0120605
-0.0136926
-0.015115
-0.0163293
-0.0173407
-0.0181557
-0.0187811
-0.0192232
-0.0194864
-0.0195738
-0.0194864
-0.0192232
-0.0187812
-0.0181557
-0.0173407
-0.0163293
-0.015115
-0.0136926
-0.0120605
-0.0102226
-0.00819106
-0.00598899
-0.00365184
-0.00122738
-0.00145837
-0.00433093
-0.00707808
-0.0096364
-0.011964
-0.0140389
-0.0158548
-0.0174156
-0.0187317
-0.019816
-0.0206819
-0.0213417
-0.0218054
-0.0220805
-0.0221717
-0.0220805
-0.0218053
-0.0213417
-0.020682
-0.019816
-0.0187317
-0.0174156
-0.0158548
-0.014039
-0.011964
-0.00963639
-0.00707807
-0.00433092
-0.00145837
-0.0017584
-0.00520592
-0.00846222
-0.0114422
-0.0141002
-0.0164222
-0.0184153
-0.0200987
-0.0214962
-0.0226326
-0.0235303
-0.0242085
-0.0246821
-0.024962
-0.0250546
-0.024962
-0.0246821
-0.0242085
-0.0235304
-0.0226327
-0.0214963
-0.0200987
-0.0184154
-0.0164222
-0.0141002
-0.0114422
-0.00846222
-0.00520591
-0.00175841
-0.00216674
-0.00637968
-0.0102781
-0.0137512
-0.0167615
-0.0193193
-0.02146
-0.0232283
-0.024669
-0.0258222
-0.0267219
-0.0273949
-0.0278616
-0.0281362
-0.0282268
-0.0281362
-0.0278616
-0.0273949
-0.0267219
-0.0258222
-0.024669
-0.0232283
-0.02146
-0.0193193
-0.0167615
-0.0137512
-0.0102781
-0.00637967
-0.00216674
-0.00276341
-0.00804491
-0.0127584
-0.0167834
-0.0201297
-0.022868
-0.0250865
-0.0268699
-0.0282908
-0.029408
-0.0302675
-0.0309037
-0.0313415
-0.0315978
-0.0316821
-0.0315977
-0.0313415
-0.0309036
-0.0302675
-0.029408
-0.0282908
-0.0268699
-0.0250865
-0.022868
-0.0201297
-0.0167834
-0.0127584
-0.00804492
-0.00276341
-0.00374337
-0.0105977
-0.0163144
-0.0208759
-0.024448
-0.027229
-0.0293931
-0.0310779
-0.032387
-0.0333966
-0.034162
-0.0347223
-0.035105
-0.0353279
-0.0354011
-0.0353279
-0.035105
-0.0347223
-0.0341619
-0.0333966
-0.0323869
-0.0310778
-0.029393
-0.027229
-0.0244481
-0.0208759
-0.0163144
-0.0105977
-0.00374337
-0.0057115
-0.0149279
-0.0216756
-0.0265142
-0.0300027
-0.0325539
-0.0344483
-0.0358727
-0.0369511
-0.037767
-0.0383767
-0.0388186
-0.0391182
-0.0392919
-0.0393489
-0.0392919
-0.0391182
-0.0388186
-0.0383767
-0.037767
-0.0369511
-0.0358727
-0.0344483
-0.0325539
-0.0300027
-0.0265142
-0.0216756
-0.0149279
-0.0057115
-0.0111275
-0.0231153
-0.03002
-0.034262
-0.0370218
-0.0389048
-0.0402382
-0.0412081
-0.0419255
-0.0424594
-0.0428537
-0.043137
-0.0433281
-0.0434385
-0.0434746
-0.0434385
-0.0433281
-0.043137
-0.0428537
-0.0424594
-0.0419255
-0.0412081
-0.0402381
-0.0389048
-0.0370218
-0.034262
-0.03002
-0.0231153
-0.0111275
-0.032586
-0.0392451
-0.0425247
-0.0443257
-0.045411
-0.0461145
-0.0465959
-0.0469379
-0.0471868
-0.0473699
-0.047504
-0.0475997
-0.047664
-0.0477011
-0.0477132
-0.0477011
-0.047664
-0.0475997
-0.047504
-0.0473699
-0.0471868
-0.0469379
-0.0465958
-0.0461145
-0.045411
-0.0443257
-0.0425247
-0.0392451
-0.032586
)
;

boundaryField
{
    frontAndBack
    {
        type            empty;
    }
    top
    {
        type            calculated;
        value           nonuniform List<scalar> 
29
(
-0.000136831
-0.000139356
-0.00014444
-0.000152177
-0.000162718
-0.00017627
-0.000193093
-0.000213516
-0.00023794
-0.000266859
-0.00030088
-0.000340721
-0.000387275
-0.000441633
-0.000505147
-0.000579546
-0.00066705
-0.000770613
-0.000894265
-0.00104371
-0.00122738
-0.00145837
-0.00175841
-0.00216674
-0.00276341
-0.00374337
-0.0057115
-0.0111275
-0.032586
)
;
    }
    left
    {
        type            calculated;
        value           nonuniform List<scalar> 
29
(
-0.000136215
-0.000406999
-0.000673022
-0.000931171
-0.00117832
-0.00141161
-0.00162837
-0.00182599
-0.00200216
-0.00215484
-0.00228226
-0.00238293
-0.00245571
-0.00249972
-0.00251441
-0.00249968
-0.00245572
-0.00238298
-0.00228229
-0.00215486
-0.0020022
-0.00182602
-0.00162839
-0.00141165
-0.00117835
-0.000931205
-0.000673081
-0.000407028
-0.000136201
)
;
    }
    bottom
    {
        type            calculated;
        value           nonuniform List<scalar> 
29
(
-0.000136838
-0.000139348
-0.000144427
-0.000152174
-0.000162724
-0.000176275
-0.000193108
-0.000213528
-0.000237935
-0.000266865
-0.000300896
-0.000340723
-0.000387266
-0.000441626
-0.000505143
-0.000579539
-0.000667041
-0.000770602
-0.000894256
-0.00104371
-0.00122738
-0.00145837
-0.0017584
-0.00216674
-0.00276341
-0.00374337
-0.0057115
-0.0111275
-0.032586
)
;
    }
    right
    {
        type            calculated;
        value           nonuniform List<scalar> 
29
(
-0.0499758
-0.0499522
-0.0499333
-0.0499178
-0.0499047
-0.0498935
-0.0498841
-0.0498761
-0.0498694
-0.0498639
-0.0498594
-0.0498561
-0.0498537
-0.0498522
-0.0498518
-0.0498522
-0.0498537
-0.0498561
-0.0498594
-0.0498639
-0.0498694
-0.0498761
-0.0498841
-0.0498935
-0.0499047
-0.0499178
-0.0499333
-0.0499522
-0.0499758
)
;
    }
}


// ************************************************************************* //
