/*--------------------------------*- C++ -*----------------------------------*\
| =========                 |                                                 |
| \\      /  F ield         | OpenFOAM: The Open Source CFD Toolbox           |
|  \\    /   O peration     | Version:  v1806                                 |
|   \\  /    A nd           | Web:      www.OpenFOAM.com                      |
|    \\/     M anipulation  |                                                 |
\*---------------------------------------------------------------------------*/
FoamFile
{
    version     2.0;
    format      ascii;
    class       volScalarField;
    location    "0.005";
    object      gradTy;
}
// * * * * * * * * * * * * * * * * * * * * * * * * * * * * * * * * * * * * * //

dimensions      [0 -1 0 1 0 0 0];


internalField   nonuniform List<scalar> 
841
(
-0.000169754
-0.000167752
-0.000163804
-0.000157905
-0.000150137
-0.000140641
-0.000129493
-0.000116809
-0.000102767
-8.75321e-05
-7.12773e-05
-5.42046e-05
-3.64958e-05
-1.83423e-05
1.11801e-08
1.8339e-05
3.64684e-05
5.41985e-05
7.12873e-05
8.75289e-05
0.000102763
0.000116814
0.000129491
0.000140636
0.000150139
0.000157898
0.000163806
0.000167775
0.000169759
-0.000512417
-0.000506364
-0.000494354
-0.000476593
-0.00045321
-0.000424501
-0.000390825
-0.000352542
-0.000310168
-0.000264215
-0.000215149
-0.000163559
-0.000110099
-5.53788e-05
-1.15857e-08
5.53581e-05
0.000110095
0.000163567
0.000215136
0.000264198
0.000310189
0.000352565
0.000390809
0.000424478
0.000453191
0.000476603
0.000494409
0.000506387
0.000512402
-0.000864473
-0.000854286
-0.000834038
-0.000804022
-0.000764564
-0.000716126
-0.000659285
-0.000594728
-0.000523247
-0.000445686
-0.000362921
-0.000275915
-0.000185721
-9.33936e-05
1.60476e-09
9.33875e-05
0.000185707
0.000275904
0.000362906
0.000445678
0.000523254
0.000594733
0.000659269
0.000716099
0.00076455
0.000804043
0.000834084
0.000854308
0.000864481
-0.00123241
-0.00121792
-0.0011891
-0.00114623
-0.00108991
-0.00102085
-0.000939805
-0.000847753
-0.000745821
-0.000635229
-0.000517258
-0.000393271
-0.000264729
-0.000133134
-1.12112e-08
0.000133109
0.000264713
0.000393276
0.000517271
0.000635244
0.000745833
0.000847752
0.000939787
0.00102083
0.00108991
0.00114622
0.00118908
0.00121795
0.00123247
-0.00162308
-0.00160393
-0.00156592
-0.00150949
-0.00143529
-0.00134426
-0.00123749
-0.00111624
-0.000981989
-0.000836327
-0.00068096
-0.000517713
-0.000348505
-0.000175279
-2.20966e-08
0.000175244
0.000348504
0.00051775
0.000681001
0.000836352
0.000982002
0.00111623
0.00123745
0.00134422
0.00143524
0.00150946
0.00156594
0.00160399
0.00162312
-0.00204364
-0.00201952
-0.00197159
-0.00190044
-0.00180692
-0.00169224
-0.00155777
-0.00140505
-0.00123597
-0.00105259
-0.000857033
-0.000651565
-0.000438589
-0.000220565
-4.24967e-09
0.000220551
0.000438579
0.000651575
0.000857057
0.00105263
0.00123601
0.00140505
0.00155772
0.0016922
0.0018069
0.00190042
0.0019716
0.00201954
0.00204365
-0.00250184
-0.00247229
-0.00241354
-0.00232633
-0.00221173
-0.00207118
-0.00190642
-0.0017194
-0.00151239
-0.00128791
-0.00104857
-0.000797139
-0.000536557
-0.000269827
-1.03993e-08
0.000269806
0.000536548
0.000797159
0.00104861
0.00128795
0.00151242
0.00171939
0.00190639
0.00207115
0.0022117
0.0023263
0.00241354
0.0024723
0.00250186
-0.00300626
-0.00297063
-0.00289991
-0.00279497
-0.00265709
-0.00248799
-0.00228979
-0.00206496
-0.00181621
-0.0015465
-0.00125897
-0.00095701
-0.000644129
-0.000323918
-1.90804e-08
0.000323889
0.000644127
0.000957034
0.00125899
0.0015465
0.00181622
0.00206498
0.00228981
0.00248797
0.00265705
0.00279495
0.00289992
0.00297066
0.00300624
-0.00356627
-0.00352393
-0.00343981
-0.00331501
-0.00315113
-0.00295025
-0.00271488
-0.00244796
-0.00215277
-0.00183284
-0.00149192
-0.00113399
-0.000763199
-0.000383773
-8.99042e-09
0.00038376
0.000763203
0.00113401
0.00149193
0.00183284
0.00215278
0.00244799
0.0027149
0.00295024
0.00315112
0.00331501
0.00343981
0.00352391
0.00356623
-0.00419238
-0.00414247
-0.00404327
-0.00389611
-0.00370297
-0.00346635
-0.00318929
-0.00287522
-0.00252804
-0.00215195
-0.00175142
-0.00133108
-0.000895765
-0.000450405
-5.51797e-09
0.00045039
0.000895757
0.00133109
0.00175142
0.00215196
0.00252804
0.00287523
0.0031893
0.00346637
0.003703
0.00389614
0.00404325
0.00414243
0.00419235
-0.00489652
-0.00483795
-0.00472161
-0.0045491
-0.00432279
-0.0040457
-0.00372145
-0.00335418
-0.00294848
-0.00250931
-0.00204186
-0.00155156
-0.001044
-0.000524895
2.83049e-09
0.000524892
0.00104399
0.00155156
0.00204185
0.0025093
0.00294849
0.0033542
0.00372148
0.00404573
0.00432282
0.00454913
0.0047216
0.00483791
0.00489646
-0.00569217
-0.00562366
-0.00548769
-0.00528618
-0.00502197
-0.00469877
-0.00432086
-0.0038932
-0.00342126
-0.00291084
-0.002368
-0.00179899
-0.0012103
-0.000608443
4.60709e-09
0.00060845
0.00121031
0.001799
0.00236798
0.00291084
0.00342127
0.00389323
0.00432088
0.00469878
0.00502201
0.0052862
0.00548768
0.00562362
0.00569209
-0.00659476
-0.00651482
-0.00635617
-0.00612121
-0.00581341
-0.00543724
-0.00499796
-0.00450147
-0.00395422
-0.00336303
-0.00273494
-0.00207721
-0.0013972
-0.000702316
-5.00615e-09
0.000702309
0.0013972
0.00207722
0.00273495
0.00336302
0.00395422
0.00450149
0.00499799
0.00543727
0.00581344
0.00612123
0.00635616
0.00651478
0.00659469
-0.00762226
-0.00752896
-0.00734389
-0.00707004
-0.00671172
-0.00627437
-0.00576444
-0.00518905
-0.00455585
-0.00387283
-0.00314819
-0.00239024
-0.00160734
-0.000807825
-1.18467e-08
0.000807805
0.00160734
0.00239026
0.00314821
0.00387283
0.00455585
0.00518907
0.00576448
0.0062744
0.00671172
0.00707004
0.00734388
0.00752893
0.00762222
-0.00879557
-0.00868651
-0.00847033
-0.00815083
-0.00773343
-0.00722494
-0.00663325
-0.00596699
-0.00523531
-0.00444765
-0.00361348
-0.00274228
-0.00184345
-0.000926297
-1.01561e-08
0.000926281
0.00184345
0.00274228
0.00361349
0.00444766
0.00523533
0.00596701
0.00663328
0.00722498
0.00773345
0.00815083
0.0084703
0.00868646
0.00879552
-0.0101393
-0.0100114
-0.00975821
-0.00938459
-0.00889747
-0.00830553
-0.00761857
-0.00684715
-0.00600229
-0.00509512
-0.0041366
-0.00313747
-0.00210821
-0.00105905
-1.12948e-09
0.00105904
0.00210819
0.00313745
0.00413659
0.00509512
0.00600231
0.00684717
0.00761859
0.00830556
0.00889751
0.00938459
0.00975819
0.0100114
0.0101392
-0.0116828
-0.0115321
-0.0112343
-0.0107956
-0.0102254
-0.00953462
-0.00873581
-0.00784205
-0.00686668
-0.00582282
-0.00472313
-0.0035797
-0.00240405
-0.00120726
5.1939e-09
0.00120726
0.00240404
0.00357966
0.00472311
0.00582281
0.00686668
0.00784207
0.00873583
0.00953465
0.0102254
0.0107956
0.0112342
0.0115321
0.0116828
-0.0134616
-0.0132829
-0.0129302
-0.0124123
-0.0117416
-0.0109326
-0.0100014
-0.00896449
-0.0078381
-0.00663775
-0.00537796
-0.00407219
-0.00273293
-0.00137184
2.26586e-09
0.00137184
0.00273291
0.00407216
0.00537794
0.00663773
0.00783809
0.0089645
0.0100014
0.0109326
0.0117416
0.0124123
0.0129302
0.0132829
0.0134616
-0.0155197
-0.0153057
-0.0148842
-0.0142679
-0.0134737
-0.0125215
-0.0114322
-0.0102268
-0.0089251
-0.00754553
-0.00610458
-0.00461698
-0.00309589
-0.00155322
5.98414e-09
0.00155323
0.00309588
0.00461696
0.00610456
0.00754551
0.00892507
0.0102267
0.0114322
0.0125215
0.0134738
0.0142679
0.0148842
0.0153057
0.0155198
-0.0179123
-0.0176525
-0.0171427
-0.0164014
-0.0154529
-0.0143245
-0.0130444
-0.0116394
-0.0101338
-0.0085492
-0.00690407
-0.00521409
-0.0034926
-0.00175113
8.45549e-09
0.00175115
0.0034926
0.00521408
0.00690406
0.00854917
0.0101337
0.0116393
0.0130444
0.0143246
0.0154529
0.0164014
0.0171427
0.0176525
0.0179123
-0.0207109
-0.0203897
-0.019763
-0.0188588
-0.017713
-0.0163648
-0.0148519
-0.013209
-0.0114659
-0.00964744
-0.00777362
-0.00586043
-0.00392053
-0.00196418
4.20519e-09
0.00196418
0.00392052
0.00586041
0.00777361
0.00964742
0.0114659
0.013209
0.0148519
0.0163648
0.0177131
0.0188588
0.019763
0.0203897
0.0207109
-0.0240113
-0.0236045
-0.0228167
-0.0216934
-0.0202897
-0.0186621
-0.0168626
-0.0149352
-0.0129159
-0.0108321
-0.00870469
-0.00654846
-0.00437416
-0.00218944
1.4331e-08
0.00218945
0.00437413
0.00654841
0.00870466
0.0108321
0.0129158
0.0149352
0.0168625
0.0186621
0.0202897
0.0216934
0.0228167
0.0236045
0.0240114
-0.0279475
-0.0274144
-0.0263948
-0.0249662
-0.0232162
-0.0212282
-0.0190728
-0.0168052
-0.0144664
-0.0120852
-0.0096807
-0.00726471
-0.00484406
-0.00242209
1.88642e-08
0.00242211
0.00484403
0.00726464
0.00968064
0.0120852
0.0144664
0.0168052
0.0190728
0.0212283
0.0232163
0.0249662
0.0263948
0.0274144
0.0279475
-0.0327167
-0.0319842
-0.0306121
-0.0287409
-0.0265147
-0.024056
-0.0214581
-0.0187863
-0.0160833
-0.0133748
-0.0106745
-0.00798817
-0.00531603
-0.00265501
-7.17965e-09
0.00265499
0.00531599
0.00798812
0.0106745
0.0133747
0.0160833
0.0187864
0.0214582
0.0240561
0.0265147
0.0287409
0.0306121
0.0319843
0.0327168
-0.0386305
-0.0375535
-0.0356092
-0.0330704
-0.0301763
-0.0271013
-0.023959
-0.0208164
-0.0177088
-0.0146514
-0.0116465
-0.0086894
-0.00577064
-0.00287853
-6.73226e-09
0.00287852
0.00577062
0.00868935
0.0116465
0.0146513
0.0177088
0.0208164
0.0239591
0.0271014
0.0301764
0.0330705
0.0356092
0.0375535
0.0386305
-0.0462272
-0.044478
-0.0415352
-0.0379551
-0.0341205
-0.030252
-0.0264605
-0.0227916
-0.019256
-0.0158457
-0.012544
-0.00933068
-0.00618366
-0.00308081
7.74017e-09
0.00308081
0.00618362
0.00933061
0.012544
0.0158456
0.0192559
0.0227916
0.0264605
0.0302521
0.0341206
0.0379551
0.0415352
0.044478
0.0462272
-0.0565569
-0.0532674
-0.048457
-0.0432374
-0.0381177
-0.0332826
-0.0287701
-0.0245588
-0.0206073
-0.0168701
-0.0133036
-0.00986822
-0.00652763
-0.00324865
9.54612e-11
0.00324865
0.00652761
0.00986817
0.0133036
0.01687
0.0206073
0.0245588
0.0287701
0.0332826
0.0381177
0.0432375
0.048457
0.0532674
0.0565568
-0.0720264
-0.0644331
-0.0560181
-0.0483639
-0.0416701
-0.0358091
-0.030609
-0.0259201
-0.0216238
-0.0176276
-0.0138585
-0.0102575
-0.00677537
-0.00336916
1.12002e-08
0.00336917
0.00677535
0.0102575
0.0138585
0.0176276
0.0216238
0.0259201
0.030609
0.0358091
0.0416701
0.0483639
0.0560181
0.0644331
0.0720264
-0.0993604
-0.0768829
-0.0623903
-0.0519898
-0.0439212
-0.037303
-0.0316492
-0.026668
-0.0221715
-0.0180302
-0.0141507
-0.0104612
-0.00690443
-0.00343179
-9.75378e-10
0.00343179
0.00690443
0.0104612
0.0141507
0.0180302
0.0221714
0.026668
0.0316492
0.037303
0.0439212
0.0519898
0.0623903
0.0768829
0.0993604
)
;

boundaryField
{
    frontAndBack
    {
        type            empty;
    }
    top
    {
        type            calculated;
        value           nonuniform List<scalar> 
29
(
0.000170251
0.000513906
0.000867031
0.00123611
0.00162791
0.0020497
0.00250927
0.00301516
0.00357684
0.00420487
0.00491114
0.00570926
0.00661475
0.00764564
0.00882291
0.0101714
0.0117206
0.0135066
0.0155737
0.0179779
0.0207923
0.0241148
0.0280841
0.0329069
0.0389178
0.0467239
0.0576346
0.0752814
0.113272
)
;
    }
    left
    {
        type            calculated;
        value           nonuniform List<scalar> 
29
(
-0.000169754
-0.000167752
-0.000163804
-0.000157905
-0.000150137
-0.000140641
-0.000129493
-0.000116809
-0.000102767
-8.75321e-05
-7.12773e-05
-5.42046e-05
-3.64958e-05
-1.83423e-05
1.11801e-08
1.8339e-05
3.64684e-05
5.41985e-05
7.12873e-05
8.75289e-05
0.000102763
0.000116814
0.000129491
0.000140636
0.000150139
0.000157898
0.000163806
0.000167775
0.000169759
)
;
    }
    bottom
    {
        type            calculated;
        value           nonuniform List<scalar> 
29
(
-0.000170268
-0.00051392
-0.000867008
-0.00123605
-0.00162788
-0.00204967
-0.00250925
-0.00301521
-0.0035769
-0.00420489
-0.00491122
-0.00570937
-0.00661484
-0.00764569
-0.00882296
-0.0101714
-0.0117207
-0.0135066
-0.0155737
-0.0179779
-0.0207922
-0.0241148
-0.0280841
-0.0329068
-0.0389178
-0.0467239
-0.0576346
-0.0752814
-0.113272
)
;
    }
    right
    {
        type            calculated;
        value           nonuniform List<scalar> 
29
(
-0.0993604
-0.0768829
-0.0623903
-0.0519898
-0.0439212
-0.037303
-0.0316492
-0.026668
-0.0221715
-0.0180302
-0.0141507
-0.0104612
-0.00690443
-0.00343179
-9.75378e-10
0.00343179
0.00690443
0.0104612
0.0141507
0.0180302
0.0221714
0.026668
0.0316492
0.037303
0.0439212
0.0519898
0.0623903
0.0768829
0.0993604
)
;
    }
}


// ************************************************************************* //
