/*--------------------------------*- C++ -*----------------------------------*\
| =========                 |                                                 |
| \\      /  F ield         | OpenFOAM: The Open Source CFD Toolbox           |
|  \\    /   O peration     | Version:  v1806                                 |
|   \\  /    A nd           | Web:      www.OpenFOAM.com                      |
|    \\/     M anipulation  |                                                 |
\*---------------------------------------------------------------------------*/
FoamFile
{
    version     2.0;
    format      ascii;
    class       volScalarField;
    location    "0.005";
    object      T;
}
// * * * * * * * * * * * * * * * * * * * * * * * * * * * * * * * * * * * * * //

dimensions      [0 0 0 1 0 0 0];


internalField   nonuniform List<scalar> 
841
(
50
49.9999
49.9999
49.9998
49.9998
49.9998
49.9997
49.9997
49.9997
49.9996
49.9996
49.9996
49.9996
49.9996
49.9996
49.9996
49.9996
49.9996
49.9996
49.9996
49.9997
49.9997
49.9997
49.9998
49.9998
49.9998
49.9999
49.9999
50
49.9999
49.9998
49.9996
49.9995
49.9994
49.9993
49.9992
49.999
49.999
49.9989
49.9988
49.9988
49.9987
49.9987
49.9987
49.9987
49.9987
49.9988
49.9988
49.9989
49.999
49.999
49.9992
49.9993
49.9994
49.9995
49.9996
49.9998
49.9999
49.9999
49.9996
49.9994
49.9992
49.999
49.9988
49.9986
49.9984
49.9982
49.9981
49.998
49.9979
49.9978
49.9978
49.9978
49.9978
49.9978
49.9979
49.998
49.9981
49.9982
49.9984
49.9986
49.9988
49.999
49.9992
49.9994
49.9996
49.9999
49.9998
49.9995
49.9992
49.9988
49.9985
49.9982
49.998
49.9977
49.9975
49.9973
49.9971
49.997
49.9969
49.9969
49.9969
49.9969
49.9969
49.997
49.9971
49.9973
49.9975
49.9977
49.998
49.9982
49.9985
49.9988
49.9992
49.9995
49.9998
49.9998
49.9993
49.9989
49.9985
49.9981
49.9977
49.9973
49.997
49.9967
49.9964
49.9962
49.9961
49.996
49.9959
49.9959
49.9959
49.996
49.9961
49.9962
49.9964
49.9967
49.997
49.9973
49.9977
49.9981
49.9985
49.9989
49.9993
49.9998
49.9997
49.9992
49.9986
49.9981
49.9976
49.9971
49.9966
49.9962
49.9958
49.9955
49.9953
49.9951
49.9949
49.9948
49.9948
49.9948
49.9949
49.9951
49.9953
49.9955
49.9958
49.9962
49.9966
49.9971
49.9976
49.9981
49.9986
49.9992
49.9997
49.9997
49.999
49.9983
49.9976
49.997
49.9964
49.9959
49.9954
49.9949
49.9945
49.9942
49.9939
49.9938
49.9937
49.9936
49.9937
49.9938
49.9939
49.9942
49.9945
49.9949
49.9954
49.9959
49.9964
49.997
49.9976
49.9983
49.999
49.9997
49.9996
49.9988
49.9979
49.9972
49.9964
49.9957
49.995
49.9944
49.9939
49.9934
49.993
49.9927
49.9925
49.9924
49.9923
49.9924
49.9925
49.9927
49.993
49.9934
49.9939
49.9944
49.995
49.9957
49.9964
49.9972
49.9979
49.9988
49.9996
49.9995
49.9985
49.9976
49.9966
49.9957
49.9949
49.9941
49.9934
49.9928
49.9922
49.9917
49.9914
49.9911
49.991
49.9909
49.991
49.9911
49.9914
49.9917
49.9922
49.9928
49.9934
49.9941
49.9949
49.9957
49.9966
49.9976
49.9985
49.9995
49.9994
49.9983
49.9971
49.996
49.995
49.994
49.9931
49.9922
49.9915
49.9908
49.9903
49.9899
49.9896
49.9894
49.9893
49.9894
49.9896
49.9899
49.9903
49.9908
49.9915
49.9922
49.9931
49.994
49.995
49.996
49.9971
49.9983
49.9994
49.9993
49.998
49.9967
49.9954
49.9941
49.993
49.9919
49.9909
49.9901
49.9893
49.9887
49.9882
49.9878
49.9876
49.9875
49.9876
49.9878
49.9882
49.9887
49.9893
49.9901
49.9909
49.9919
49.993
49.9941
49.9954
49.9967
49.998
49.9993
49.9992
49.9976
49.9961
49.9946
49.9932
49.9918
49.9906
49.9895
49.9885
49.9876
49.9868
49.9863
49.9859
49.9856
49.9855
49.9856
49.9859
49.9863
49.9868
49.9876
49.9885
49.9895
49.9906
49.9918
49.9932
49.9946
49.9961
49.9976
49.9992
49.9991
49.9973
49.9955
49.9938
49.9921
49.9906
49.9891
49.9878
49.9866
49.9856
49.9848
49.9841
49.9836
49.9833
49.9832
49.9833
49.9836
49.9841
49.9848
49.9856
49.9866
49.9878
49.9891
49.9906
49.9921
49.9938
49.9955
49.9973
49.9991
49.9989
49.9968
49.9948
49.9928
49.9909
49.9891
49.9874
49.9859
49.9846
49.9834
49.9824
49.9817
49.9811
49.9808
49.9807
49.9808
49.9811
49.9817
49.9824
49.9834
49.9846
49.9859
49.9874
49.9891
49.9909
49.9928
49.9948
49.9968
49.9989
49.9988
49.9964
49.994
49.9917
49.9895
49.9874
49.9855
49.9838
49.9822
49.9809
49.9798
49.9789
49.9782
49.9779
49.9777
49.9779
49.9782
49.9789
49.9798
49.9809
49.9822
49.9838
49.9855
49.9874
49.9895
49.9917
49.994
49.9964
49.9988
49.9986
49.9958
49.9931
49.9904
49.9879
49.9855
49.9833
49.9813
49.9795
49.978
49.9767
49.9757
49.975
49.9746
49.9744
49.9746
49.975
49.9757
49.9767
49.978
49.9795
49.9813
49.9833
49.9855
49.9879
49.9904
49.9931
49.9958
49.9986
49.9984
49.9952
49.992
49.989
49.9861
49.9833
49.9808
49.9785
49.9765
49.9747
49.9733
49.9721
49.9713
49.9708
49.9706
49.9708
49.9713
49.9721
49.9733
49.9747
49.9765
49.9785
49.9808
49.9833
49.9861
49.989
49.992
49.9952
49.9984
49.9981
49.9944
49.9908
49.9873
49.984
49.9808
49.9779
49.9753
49.973
49.971
49.9693
49.968
49.9671
49.9665
49.9663
49.9665
49.9671
49.968
49.9693
49.971
49.973
49.9753
49.9779
49.9808
49.984
49.9873
49.9908
49.9944
49.9981
49.9979
49.9936
49.9894
49.9854
49.9815
49.9779
49.9746
49.9716
49.969
49.9667
49.9648
49.9633
49.9623
49.9616
49.9614
49.9616
49.9623
49.9633
49.9648
49.9667
49.969
49.9716
49.9746
49.9779
49.9815
49.9854
49.9894
49.9936
49.9979
49.9975
49.9926
49.9878
49.9831
49.9787
49.9746
49.9708
49.9674
49.9644
49.9618
49.9597
49.958
49.9568
49.9561
49.9558
49.9561
49.9568
49.958
49.9597
49.9618
49.9644
49.9674
49.9708
49.9746
49.9787
49.9831
49.9878
49.9926
49.9975
49.9971
49.9914
49.9859
49.9805
49.9755
49.9708
49.9664
49.9626
49.9592
49.9562
49.9538
49.952
49.9506
49.9498
49.9495
49.9498
49.9506
49.952
49.9538
49.9562
49.9592
49.9626
49.9664
49.9708
49.9755
49.9805
49.9859
49.9914
49.9971
49.9967
49.9901
49.9837
49.9775
49.9717
49.9663
49.9614
49.957
49.9531
49.9499
49.9472
49.9451
49.9436
49.9427
49.9423
49.9427
49.9436
49.9451
49.9472
49.9499
49.9531
49.957
49.9614
49.9663
49.9717
49.9775
49.9837
49.9901
49.9967
49.9961
49.9885
49.981
49.9739
49.9672
49.9611
49.9555
49.9506
49.9462
49.9426
49.9396
49.9372
49.9356
49.9346
49.9342
49.9346
49.9356
49.9372
49.9396
49.9426
49.9462
49.9506
49.9555
49.9611
49.9672
49.9739
49.981
49.9885
49.9961
49.9955
49.9865
49.9778
49.9696
49.962
49.955
49.9487
49.9431
49.9383
49.9343
49.9309
49.9284
49.9265
49.9254
49.9251
49.9254
49.9265
49.9284
49.9309
49.9343
49.9383
49.9431
49.9487
49.955
49.962
49.9696
49.9778
49.9865
49.9955
49.9946
49.9841
49.9739
49.9644
49.9557
49.9478
49.9407
49.9345
49.9292
49.9248
49.9211
49.9183
49.9164
49.9152
49.9148
49.9152
49.9164
49.9183
49.9211
49.9248
49.9292
49.9345
49.9407
49.9478
49.9557
49.9644
49.9739
49.9841
49.9946
49.9936
49.9809
49.969
49.958
49.9481
49.9392
49.9314
49.9246
49.9188
49.914
49.9101
49.9071
49.9049
49.9036
49.9032
49.9036
49.9049
49.9071
49.9101
49.914
49.9188
49.9246
49.9314
49.9392
49.9481
49.958
49.969
49.9809
49.9936
49.9921
49.9767
49.9627
49.95
49.9388
49.929
49.9204
49.9131
49.9069
49.9017
49.8976
49.8944
49.8921
49.8908
49.8903
49.8908
49.8921
49.8944
49.8976
49.9017
49.9069
49.9131
49.9204
49.929
49.9388
49.95
49.9627
49.9767
49.9921
49.9896
49.9706
49.9541
49.9397
49.9274
49.9167
49.9076
49.8999
49.8933
49.8879
49.8836
49.8803
49.8779
49.8765
49.8761
49.8765
49.8779
49.8803
49.8836
49.8879
49.8933
49.8999
49.9076
49.9167
49.9274
49.9397
49.9541
49.9706
49.9896
49.9844
49.9608
49.942
49.9264
49.9133
49.9021
49.8927
49.8847
49.878
49.8725
49.868
49.8646
49.8623
49.8608
49.8604
49.8608
49.8623
49.8646
49.868
49.8725
49.878
49.8847
49.8927
49.9021
49.9133
49.9264
49.942
49.9608
49.9844
)
;

boundaryField
{
    frontAndBack
    {
        type            empty;
    }
    top
    {
        type            fixedValue;
        value           uniform 50;
    }
    left
    {
        type            fixedValue;
        value           uniform 50;
    }
    bottom
    {
        type            fixedValue;
        value           uniform 50;
    }
    right
    {
        type            robin;
        beta            0.001;
        value           nonuniform List<scalar> 
29
(
49.9758
49.9522
49.9333
49.9178
49.9047
49.8935
49.8841
49.8761
49.8694
49.8639
49.8594
49.8561
49.8537
49.8522
49.8518
49.8522
49.8537
49.8561
49.8594
49.8639
49.8694
49.8761
49.8841
49.8935
49.9047
49.9178
49.9333
49.9522
49.9758
)
;
    }
}


// ************************************************************************* //
